
Running Job 1 of 1 biphenyl-SP-TZdp-Cation-75.0.in
qchem biphenyl-SP-TZdp-Cation-75.0.in_28924.0 /state/partition1/191604.1.all.q/qchem28924/ 1
/share/apps/qchem/4.1.0/bin/mpi/mpirun_qchem -machinefile /share/apps/qchem/4.1.0/bin/mpi/machines -np 1 /share/apps/qchem/4.1.0/exe/qcprog.exe biphenyl-SP-TZdp-Cation-75.0.in_28924.0 /state/partition1/191604.1.all.q/qchem28924/

Process 0 of 1 is on compute-1-14.local - thread support 0
initial socket setup ...start
initial socket setup ...done 
now start server 0 ... 
                  Welcome to Q-Chem
     A Quantum Leap Into The Future Of Chemistry

 Y. Shao, L. Fusti-Molnar, Y. Jung, J. Kussmann, C. Ochsenfeld, S. T. Brown, 
 A. T. B. Gilbert, L. V. Slipchenko, S. V. Levchenko, D. P. O'Neill, 
 R. A. DiStasio Jr., R. C. Lochan, T. Wang, G. J. O. Beran, N. A. Besley, 
 J. M. Herbert, C. Y. Lin, T. Van Voorhis, S. H. Chien, A. Sodt, R. P. Steele, 
 V. A. Rassolov, P. E. Maslen, P. P. Korambath, R. D. Adamson, B. Austin, 
 J. Baker, E. F. C. Byrd, H. Dachsel, R. J. Doerksen, A. Dreuw, B. D. Dunietz, 
 A. D. Dutoi, T. R. Furlani, S. R. Gwaltney, A. Heyden, S. Hirata, C.-P. Hsu, 
 G. Kedziora, R. Z. Khaliullin, P. Klunzinger, A. M. Lee, M. S. Lee, W. Liang, 
 I. Lotan, N. Nair, B. Peters, E. I. Proynov, P. A. Pieniazek, Y. M. Rhee, 
 J. Ritchie, E. Rosta, C. D. Sherrill, A. C. Simmonett, J. E. Subotnik, 
 H. L. Woodcock III, W. Zhang, A. T. Bell, A. K. Chakraborty, D. M. Chipman, 
 F. J. Keil, A. Warshel, W. J. Hehre, H. F. Schaefer III, J. Kong, 
 A. I. Krylov, P. M. W. Gill, M. Head-Gordon

 Additional authors for Version 3.1: 
 Z. Gan, Y. Zhao, N. E. SchultzD. Truhlar, E. Epifanovsky, M. Oana

 Additional authors for Version 3.2: 
 R. Baer, B. R. Brooks, D. Casanova, J.-D. Chai, C.-L. Cheng, C. Cramer, 
 D. Crittenden, A. Ghysels, G. Hawkins, E. G. Hohenstein, C. Kelley, 
 W. Kurlancheek, D. Liotard, E. Livshits, P. Manohar, A. Marenich, 
 D. Neuhauser, R. Olson, M. A. Rohrdanz, K. S. Thanthiriwatte, A. J. W. Thom, 
 V. Vanovschi, C. F. Williams, Q. Wu, Z.-Q. You

 Additional authors for Version 4.0: 
 A. Aspuru-Guzik, Y. Bernard, C. Chang, J. Deng, A. Dreuw, M. Diedenhofen, 
 R. G. Edgar, D. Ghosh, W. A. Goddard III, M. Goldey, L. D. Jacobson, 
 M. Gordon, B. Kaduk, I. Kaliman, K. Khistyaev, R. King, A. Klamt, 
 D. Kosenkov, T. Kus, D. Lambrecht, A. Landau, A. W. Lange, K. Lawler, F. Liu, 
 J. Liu, R. Olivares-Amaya, S. P. Mao, J. Parkhill, N. Russ, M. Schmidt, 
 N. Shenvi, D. Small, Y. C. Su, E. Sundstrom, L. Vogt, O. Vydrov, M. Watson, 
 M. Wormit, X. Xu, S. Yeganeh, I. Y. Zhang, D. Zuev

 Additional authors for Version 4.1: 
 X. Feng, M. W. D. Hanson-Heine, P. Horn, H. Ji, A. Laurent, R. Peverati, 
 N. Mardirossian, N. Sergueev, S. Sharada, P. Zimmerman


 Q-Chem, Version 4.1, Q-Chem, Inc., Pittsburgh, PA (2013).

 Intel X86 Linux Version 4.1.1

 Q-chem begins on Mon Feb 24 15:00:28 2014  

 Host: compute-1-14.local

 Scratch files written to /state/partition1/191604.1.all.q/qchem28924//
 Nov513 13050_epif 4082   
 Parallel job on  1  processors

Processing $rem in /share/apps/qchem/4.1.0/config/preferences.
 MEM_TOTAL  2000 
Finally everything over in PARseQInput

--------------------------------------------------------------
User input:
--------------------------------------------------------------
$comment
DFT(BP86)/TZ(d,p) SP  biphenyl
Angle: 75.0
$end

$rem
JOBTYPE SP
EXCHANGE B
CORRELATION P86
BASIS TZ(d,p)
UNRESTRICTED TRUE
PRINT_ORBITALS FALSE
MAX_SCF_CYCLES 100
$end

$molecule
1 2
C	-1.481133	-1.211445	0.0
C	-2.878369	-1.221831	0.0
C	-0.747319	-0.004143	0.0
C	-3.595846	-0.020564	0.0
C	-2.891793	1.188615	0.0
C	-1.494461	1.195084	0.0
H	-0.988428	2.160976	0.0
H	-3.432896	2.137017	0.0
H	-4.687552	-0.02652	0.0
H	-0.962498	-2.170451	0.0
H	-3.408061	-2.176748	0.0
C	2.88680876316	-0.296618718934	-1.16295617587
C	1.48950209685	-0.30375763093	-1.16213133746
C	3.59551877897	0.0191148433322	0.00142986224188
C	0.747016	0.003728	0.0
C	1.48551418099	0.319099028381	1.16244750764
C	2.882753117	0.327249938062	1.16540077501
H	3.4242303214	-0.53998269927	-2.08175456354
H	0.980042498845	-0.555629550961	-2.09210250982
H	3.41636439429	0.576575877418	2.08539559357
H	0.970635365289	0.565282905415	2.09132661802
H	4.68722464463	0.0249224960847	0.00164404671581
$end
--------------------------------------------------------------
 ----------------------------------------------------
       Standard Nuclear Orientation (Angstroms)
    I     Atom         X            Y            Z
 ----------------------------------------------------
    1      C       1.487595    -0.954373    -0.732160
    2      C       2.884867    -0.956404    -0.734012
    3      C       0.747184     0.000174     0.000433
    4      C       3.595758    -0.000196    -0.000448
    5      C       2.885098     0.955972     0.733383
    6      C       1.487752     0.954896     0.732849
    7      H       0.976440     1.718933     1.319214
    8      H       3.421003     1.710787     1.312451
    9      H       4.687481    -0.000071    -0.000581
   10      H       0.974216    -1.717500    -1.317612
   11      H       3.419777    -1.711630    -1.313620
   12      C      -2.885095    -0.955963     0.733402
   13      C      -1.487770    -0.954916     0.732873
   14      C      -3.595716     0.000200    -0.000439
   15      C      -0.747171    -0.000221     0.000443
   16      C      -1.487578     0.954342    -0.732176
   17      C      -2.884841     0.956398    -0.734028
   18      H      -3.421024    -1.710746     1.312471
   19      H      -0.976785    -1.718598     1.318977
   20      H      -3.419962     1.711881    -1.313844
   21      H      -0.974208     1.717399    -1.317599
   22      H      -4.687437     0.000087    -0.000567
 ----------------------------------------------------
 Molecular Point Group                 C1    NOp =  1
 Largest Abelian Subgroup              C1    NOp =  1
 Nuclear Repulsion Energy =   594.5077157687 hartrees
 There are       41 alpha and       40 beta electrons
 Requested basis set is TZ(d,p)
 There are 148 shells and 288 basis functions

Total QAlloc Memory Limit   2000 MB
Mega-Array Size        61 MB
MEM_STATIC part        62 MB
 A cutoff of  1.0D-08 yielded   7292 shell pairs
 There are     29852 function pairs (     32297 Cartesian)
 Smallest overlap matrix eigenvalue = 2.23E-04

  Scale SEOQF with 1.000000e-01/1.000000e-01/1.000000e-01

 Standard Electronic Orientation quadrupole field applied
 Nucleus-field energy     =     0.0000000187 hartrees
 Guess from superposition of atomic densities
 Warning:  Energy on first SCF cycle will be non-variational
 An unrestricted Kohn-Sham SCF calculation will be
 performed using Pulay DIIS extrapolation
 Exchange:  Becke88      Correlation:  Perdew '86
 Using SG-1 standard quadrature grid
 SCF converges when DIIS error is below 1.0E-05
 Requested basis set is TZ(d,p)
 There are 148 shells and 288 basis functions
 A cutoff of  1.0D-08 yielded   7292 shell pairs
 There are     29852 function pairs (     32297 Cartesian)
 Inaccurate integrated density:
   Number of electrons =    81
   Numerical integral  =    32.987140814670
   Relative error      =   -59.2751347967 %
 ---------------------------------------
  Cycle       Energy         DIIS Error
 ---------------------------------------
    1      38.7166854109      4.01E-01
    2    -358.7883653148      8.39E-02
    3    -320.7997211003      7.36E-02
    4    -382.6707285191      6.35E-02
    5    -297.7057961768      7.45E-02
    6    -337.2764264025      7.01E-02
    7    -454.3671636650      1.94E-02
    8    -438.1759913710      3.51E-02
    9    -462.7634174056      5.03E-03
   10    -462.0948086947      8.68E-03
   11    -463.0523603624      2.07E-03
   12    -463.0522855070      2.01E-03
   13    -463.0796012867      1.55E-03
   14    -463.0525372653      1.81E-03
   15    -463.1039728007      9.98E-04
   16    -463.1215629326      5.33E-04
   17    -463.1242168718      3.61E-04
   18    -463.1246950723      2.94E-04
   19    -463.1254746192      1.84E-04
   20    -463.1257988566      1.08E-04
   21    -463.1259053365      6.07E-05
   22    -463.1259613569      2.16E-05
   23    -463.1259615636      1.61E-05
   24    -463.1259630083      6.65E-06 Convergence criterion met
 ---------------------------------------
 <S^2> = 0.7532
 SCF time:  CPU 411.00 s  wall 411.04 s
 SCF   energy in the final basis set = -463.1259630083
 Total energy in the final basis set = -463.1259630083
 Analysis of SCF Wavefunction
 
 --------------------------------------------------------------
                    Orbital Energies (a.u.)
 --------------------------------------------------------------
 
 Alpha MOs
 -- Occupied --
-10.115 -10.115 -10.091 -10.091 -10.084 -10.084 -10.084 -10.084
-10.077 -10.077 -10.077 -10.077  -0.974  -0.950  -0.888  -0.849
 -0.847  -0.836  -0.741  -0.722  -0.715  -0.695  -0.648  -0.620
 -0.588  -0.583  -0.582  -0.560  -0.548  -0.539  -0.538  -0.509
 -0.504  -0.495  -0.472  -0.470  -0.468  -0.418  -0.406  -0.404
 -0.399
 -- Virtual --
 -0.232  -0.219  -0.217  -0.204  -0.089  -0.081  -0.079  -0.078
 -0.051  -0.050  -0.049  -0.045  -0.041  -0.031  -0.030  -0.029
  0.006   0.018   0.021   0.023   0.025   0.035   0.046   0.048
  0.054   0.054   0.063   0.075   0.081   0.083   0.087   0.097
  0.099   0.114   0.120   0.123   0.137   0.139   0.145   0.150
  0.154   0.161   0.164   0.171   0.172   0.178   0.188   0.199
  0.226   0.237   0.237   0.261   0.311   0.313   0.318   0.327
  0.332   0.334   0.340   0.349   0.357   0.411   0.427   0.440
  0.444   0.460   0.477   0.506   0.509   0.526   0.528   0.573
  0.573   0.590   0.599   0.609   0.651   0.740   0.759   0.854
  0.856   0.876   0.888   0.890   0.891   0.903   0.913   0.914
  0.931   0.946   0.962   0.967   0.976   0.999   1.005   1.005
  1.011   1.018   1.018   1.019   1.020   1.030   1.039   1.048
  1.050   1.052   1.058   1.064   1.072   1.076   1.076   1.080
  1.082   1.083   1.112   1.113   1.114   1.118   1.133   1.134
  1.140   1.172   1.183   1.201   1.207   1.211   1.250   1.364
  1.368   1.437   1.442   1.484   1.514   1.550   1.552   1.583
  1.610   1.611   1.626   1.678   1.695   1.705   1.712   1.722
  1.724   1.744   1.744   1.760   1.766   1.784   1.796   1.812
  1.820   1.848   1.850   1.875   1.906   1.911   1.931   1.952
  1.957   1.964   1.965   1.982   1.988   1.988   1.994   1.998
  2.003   2.011   2.113   2.116   2.123   2.187   2.191   2.194
  2.202   2.215   2.226   2.256   2.275   2.303   2.310   2.319
  2.326   2.330   2.343   2.353   2.397   2.413   2.414   2.415
  2.558   2.574   2.612   2.652   2.662   2.671   2.701   2.728
  2.754   2.810   2.907   2.930   2.934   2.938   2.974   3.001
  3.074   3.077   3.095   3.103   3.108   3.138   3.147   3.169
  3.211   3.269   3.388   3.399   3.460   3.513   3.552   3.806
  3.895   6.318   6.322   6.398   6.415   6.451   6.458   6.507
  6.514   6.681   6.716  22.775  23.179  23.206  23.220  23.223
 23.281  23.327  23.336  23.360  23.543  23.575  23.625
 
 Beta MOs
 -- Occupied --
-10.112 -10.112 -10.088 -10.088 -10.083 -10.083 -10.083 -10.083
-10.077 -10.077 -10.077 -10.077  -0.968  -0.946  -0.882  -0.847
 -0.845  -0.829  -0.737  -0.720  -0.712  -0.692  -0.647  -0.618
 -0.585  -0.581  -0.578  -0.559  -0.546  -0.539  -0.538  -0.501
 -0.495  -0.493  -0.470  -0.468  -0.467  -0.404  -0.400  -0.396
 -- Virtual --
 -0.390  -0.219  -0.214  -0.203  -0.200  -0.087  -0.077  -0.072
 -0.071  -0.049  -0.049  -0.046  -0.044  -0.039  -0.029  -0.028
 -0.027   0.008   0.022   0.023   0.025   0.027   0.035   0.048
  0.049   0.056   0.058   0.065   0.076   0.082   0.085   0.090
  0.098   0.101   0.117   0.123   0.126   0.141   0.141   0.151
  0.155   0.157   0.166   0.167   0.175   0.176   0.183   0.192
  0.201   0.230   0.240   0.240   0.264   0.312   0.315   0.319
  0.329   0.332   0.335   0.343   0.351   0.359   0.414   0.431
  0.441   0.446   0.463   0.479   0.511   0.511   0.529   0.533
  0.577   0.578   0.592   0.600   0.612   0.654   0.742   0.760
  0.856   0.858   0.878   0.890   0.891   0.895   0.904   0.916
  0.920   0.933   0.951   0.970   0.975   0.977   1.003   1.007
  1.008   1.015   1.021   1.025   1.027   1.027   1.031   1.048
  1.050   1.053   1.057   1.068   1.070   1.073   1.077   1.081
  1.082   1.085   1.085   1.114   1.114   1.118   1.122   1.137
  1.138   1.144   1.175   1.186   1.207   1.210   1.215   1.253
  1.374   1.374   1.440   1.445   1.488   1.520   1.557   1.561
  1.591   1.611   1.613   1.632   1.683   1.698   1.706   1.716
  1.728   1.729   1.748   1.748   1.763   1.771   1.788   1.800
  1.820   1.827   1.850   1.852   1.883   1.908   1.917   1.934
  1.956   1.959   1.967   1.967   1.991   1.991   1.991   1.995
  2.001   2.005   2.013   2.120   2.120   2.125   2.190   2.196
  2.196   2.207   2.219   2.228   2.262   2.281   2.306   2.314
  2.321   2.330   2.338   2.345   2.357   2.400   2.415   2.417
  2.417   2.560   2.576   2.614   2.653   2.663   2.672   2.703
  2.730   2.756   2.814   2.908   2.931   2.935   2.939   2.976
  3.003   3.076   3.079   3.100   3.105   3.109   3.145   3.149
  3.170   3.217   3.276   3.390   3.401   3.468   3.516   3.555
  3.811   3.900   6.318   6.322   6.398   6.415   6.451   6.458
  6.507   6.514   6.681   6.716  22.777  23.184  23.209  23.221
 23.224  23.283  23.328  23.338  23.361  23.547  23.577  23.628
 --------------------------------------------------------------
 
          Ground-State Mulliken Net Atomic Charges

     Atom                 Charge (a.u.)    Spin (a.u.)
  --------------------------------------------------------
      1 C                    -0.154869       0.040387
      2 C                    -0.116422       0.006956
      3 C                     0.072359       0.195229
      4 C                    -0.077241       0.228213
      5 C                    -0.116275       0.007816
      6 C                    -0.155255       0.039311
      7 H                     0.207544      -0.002557
      8 H                     0.210593      -0.000295
      9 H                     0.212568      -0.010975
     10 H                     0.207443      -0.002630
     11 H                     0.210638      -0.000257
     12 C                    -0.116298       0.007036
     13 C                    -0.155665       0.040780
     14 C                    -0.077857       0.226633
     15 C                     0.071963       0.193485
     16 C                    -0.155198       0.039571
     17 C                    -0.116747       0.008153
     18 H                     0.210562      -0.000257
     19 H                     0.207450      -0.002754
     20 H                     0.210724      -0.000413
     21 H                     0.207425      -0.002573
     22 H                     0.212558      -0.010857
  --------------------------------------------------------
  Sum of atomic charges =     1.000000
  Sum of spin   charges =     1.000000

 -----------------------------------------------------------------
                    Cartesian Multipole Moments
 -----------------------------------------------------------------
    Charge (ESU x 10^10)
                 4.8032
    Dipole Moment (Debye)
         X       0.0227      Y       0.0005      Z      -0.0004
       Tot       0.0227
    Quadrupole Moments (Debye-Ang)
        XX     -17.3386     XY       0.0074     YY     -57.9508
        XZ      -0.0004     YZ       0.0023     ZZ     -63.8889
    Octapole Moments (Debye-Ang^2)
       XXX       0.2099    XXY       0.0008    XYY       0.0177
       YYY       0.0000    XXZ      -0.0063    XYZ      25.7508
       YYZ       0.0059    XZZ       0.0160    YZZ       0.0010
       ZZZ       0.0037
    Hexadecapole Moments (Debye-Ang^3)
      XXXX   -1640.0959   XXXY       0.0993   XXYY    -419.1300
      XYYY       0.0070   YYYY    -359.4700   XXXZ      -0.0048
      XXYZ      -0.0033   XYYZ       0.0053   YYYZ       0.0051
      XXZZ    -440.0466   XYZZ      -0.0096   YYZZ     -79.3019
      XZZZ      -0.0013   YZZZ       0.0029   ZZZZ    -260.9277
 -----------------------------------------------------------------
Archival summary:
1\1\compute-1-14.local\SP\ProcedureUnspecified\BasisUnspecified\1210(1+,2)\baa257\MonFeb2415:07:202014MonFeb2415:07:202014\0\\#,ProcedureUnspecified,BasisUnspecified,\\1,2\C\C,1,1.41284\H,2,1.09019,1,120.303\C,2,1.39727,1,121.718,3,-180,0\H,4,1.09238,2,119.445,1,180,0\C,4,1.39922,2,120.421,1,0,0\H,6,1.09172,4,120.535,2,-180,0\C,6,1.3992,4,118.943,2,0,0\H,8,1.0919,6,120.083,4,-180,0\C,8,1.39733,6,120.475,4,0,0\H,10,1.08988,8,117.912,6,-180,0\C,1,1.49436,2,121.592,3,0,0\C,12,1.41282,1,121.594,2,105,0\H,13,1.09026,12,120.303,1,0,0\C,13,1.39727,12,121.718,1,-180,0\H,15,1.09199,13,119.443,12,180,0\C,15,1.39922,13,120.423,12,0,0\H,17,1.09172,15,120.536,13,-180,0\C,17,1.39922,15,118.941,13,0,0\H,19,1.09191,17,120.083,15,-180,0\C,19,1.39735,17,120.476,15,0,0\H,21,1.09042,19,117.915,17,180,0\\\@

 Total job time:  411.45s(wall), 411.37s(cpu) 
 Mon Feb 24 15:07:20 2014

        *************************************************************
        *                                                           *
        *  Thank you very much for using Q-Chem.  Have a nice day.  *
        *                                                           *
        *************************************************************


0 sent ACK to 0 
now end server 0 ... 
cleanup process ... done
