
Running Job 1 of 1 biphenyl-SP-TZdp-Cation-20.0.in
qchem biphenyl-SP-TZdp-Cation-20.0.in_21750.0 /state/partition1/191593.1.all.q/qchem21750/ 1
/share/apps/qchem/4.1.0/bin/mpi/mpirun_qchem -machinefile /share/apps/qchem/4.1.0/bin/mpi/machines -np 1 /share/apps/qchem/4.1.0/exe/qcprog.exe biphenyl-SP-TZdp-Cation-20.0.in_21750.0 /state/partition1/191593.1.all.q/qchem21750/

Process 0 of 1 is on compute-4-10.local - thread support 0
initial socket setup ...start
initial socket setup ...done 
now start server 0 ... 
                  Welcome to Q-Chem
     A Quantum Leap Into The Future Of Chemistry

 Y. Shao, L. Fusti-Molnar, Y. Jung, J. Kussmann, C. Ochsenfeld, S. T. Brown, 
 A. T. B. Gilbert, L. V. Slipchenko, S. V. Levchenko, D. P. O'Neill, 
 R. A. DiStasio Jr., R. C. Lochan, T. Wang, G. J. O. Beran, N. A. Besley, 
 J. M. Herbert, C. Y. Lin, T. Van Voorhis, S. H. Chien, A. Sodt, R. P. Steele, 
 V. A. Rassolov, P. E. Maslen, P. P. Korambath, R. D. Adamson, B. Austin, 
 J. Baker, E. F. C. Byrd, H. Dachsel, R. J. Doerksen, A. Dreuw, B. D. Dunietz, 
 A. D. Dutoi, T. R. Furlani, S. R. Gwaltney, A. Heyden, S. Hirata, C.-P. Hsu, 
 G. Kedziora, R. Z. Khaliullin, P. Klunzinger, A. M. Lee, M. S. Lee, W. Liang, 
 I. Lotan, N. Nair, B. Peters, E. I. Proynov, P. A. Pieniazek, Y. M. Rhee, 
 J. Ritchie, E. Rosta, C. D. Sherrill, A. C. Simmonett, J. E. Subotnik, 
 H. L. Woodcock III, W. Zhang, A. T. Bell, A. K. Chakraborty, D. M. Chipman, 
 F. J. Keil, A. Warshel, W. J. Hehre, H. F. Schaefer III, J. Kong, 
 A. I. Krylov, P. M. W. Gill, M. Head-Gordon

 Additional authors for Version 3.1: 
 Z. Gan, Y. Zhao, N. E. SchultzD. Truhlar, E. Epifanovsky, M. Oana

 Additional authors for Version 3.2: 
 R. Baer, B. R. Brooks, D. Casanova, J.-D. Chai, C.-L. Cheng, C. Cramer, 
 D. Crittenden, A. Ghysels, G. Hawkins, E. G. Hohenstein, C. Kelley, 
 W. Kurlancheek, D. Liotard, E. Livshits, P. Manohar, A. Marenich, 
 D. Neuhauser, R. Olson, M. A. Rohrdanz, K. S. Thanthiriwatte, A. J. W. Thom, 
 V. Vanovschi, C. F. Williams, Q. Wu, Z.-Q. You

 Additional authors for Version 4.0: 
 A. Aspuru-Guzik, Y. Bernard, C. Chang, J. Deng, A. Dreuw, M. Diedenhofen, 
 R. G. Edgar, D. Ghosh, W. A. Goddard III, M. Goldey, L. D. Jacobson, 
 M. Gordon, B. Kaduk, I. Kaliman, K. Khistyaev, R. King, A. Klamt, 
 D. Kosenkov, T. Kus, D. Lambrecht, A. Landau, A. W. Lange, K. Lawler, F. Liu, 
 J. Liu, R. Olivares-Amaya, S. P. Mao, J. Parkhill, N. Russ, M. Schmidt, 
 N. Shenvi, D. Small, Y. C. Su, E. Sundstrom, L. Vogt, O. Vydrov, M. Watson, 
 M. Wormit, X. Xu, S. Yeganeh, I. Y. Zhang, D. Zuev

 Additional authors for Version 4.1: 
 X. Feng, M. W. D. Hanson-Heine, P. Horn, H. Ji, A. Laurent, R. Peverati, 
 N. Mardirossian, N. Sergueev, S. Sharada, P. Zimmerman


 Q-Chem, Version 4.1, Q-Chem, Inc., Pittsburgh, PA (2013).

 Intel X86 Linux Version 4.1.1

 Q-chem begins on Mon Feb 24 14:59:58 2014  

 Host: compute-4-10.local

 Scratch files written to /state/partition1/191593.1.all.q/qchem21750//
 Nov513 13050_epif 4082   
 Parallel job on  1  processors

Processing $rem in /share/apps/qchem/4.1.0/config/preferences.
 MEM_TOTAL  2000 
Finally everything over in PARseQInput

--------------------------------------------------------------
User input:
--------------------------------------------------------------
$comment
DFT(BP86)/TZ(d,p) SP  biphenyl
Angle: 20.0
$end

$rem
JOBTYPE SP
EXCHANGE B
CORRELATION P86
BASIS TZ(d,p)
UNRESTRICTED TRUE
PRINT_ORBITALS FALSE
MAX_SCF_CYCLES 100
$end

$molecule
1 2
C	-1.481133	-1.211445	0.0
C	-2.878369	-1.221831	0.0
C	-0.747319	-0.004143	0.0
C	-3.595846	-0.020564	0.0
C	-2.891793	1.188615	0.0
C	-1.494461	1.195084	0.0
H	-0.988428	2.160976	0.0
H	-3.432896	2.137017	0.0
H	-4.687552	-0.02652	0.0
H	-0.962498	-2.170451	0.0
H	-3.408061	-2.176748	0.0
C	2.89112655768	-1.11636607885	-0.411785695266
C	1.49381682893	-1.12292357675	-0.411493632103
C	3.59551347022	0.020122728085	0.000506293211748
C	0.747016	0.003728	0.0
C	1.48119827504	1.13848783701	0.411605583319
C	2.87842624624	1.14872045293	0.412651291903
H	3.43195940752	-2.00737488726	-0.737118704989
H	0.987810004563	-2.03031582434	-0.740782760731
H	3.40862178984	2.04653456346	0.738407940227
H	0.962870740282	2.03942226631	0.740508028847
H	4.68721854065	0.0260813557071	0.000582132787086
$end
--------------------------------------------------------------
 ----------------------------------------------------
       Standard Nuclear Orientation (Angstroms)
    I     Atom         X            Y            Z
 ----------------------------------------------------
    1      C       1.487771    -1.184634    -0.208848
    2      C       2.885043    -1.187115    -0.209376
    3      C       0.747184     0.000239     0.000124
    4      C       3.595759    -0.000138    -0.000127
    5      C       2.884922     1.186748     0.209198
    6      C       1.487576     1.185371     0.209045
    7      H       0.976123     2.133768     0.376306
    8      H       3.420687     2.123728     0.374377
    9      H       4.687481     0.000050    -0.000165
   10      H       0.974533    -2.131932    -0.375849
   11      H       3.420093    -2.124572    -0.374709
   12      C      -2.884928    -1.186751     0.209200
   13      C      -1.487603    -1.185410     0.209049
   14      C      -3.595716     0.000142    -0.000126
   15      C      -0.747171    -0.000296     0.000126
   16      C      -1.487745     1.184610    -0.208851
   17      C      -2.885008     1.187121    -0.209379
   18      H      -3.420724    -2.123701     0.374378
   19      H      -0.976485    -2.133377     0.376234
   20      H      -3.420261     2.124908    -0.374770
   21      H      -0.974509     2.131830    -0.375841
   22      H      -4.687437    -0.000030    -0.000162
 ----------------------------------------------------
 Molecular Point Group                 C1    NOp =  1
 Largest Abelian Subgroup              C1    NOp =  1
 Nuclear Repulsion Energy =   595.9417776410 hartrees
 There are       41 alpha and       40 beta electrons
 Requested basis set is TZ(d,p)
 There are 148 shells and 288 basis functions

Total QAlloc Memory Limit   2000 MB
Mega-Array Size        61 MB
MEM_STATIC part        62 MB
 A cutoff of  1.0D-08 yielded   7300 shell pairs
 There are     29820 function pairs (     32235 Cartesian)
 Smallest overlap matrix eigenvalue = 2.02E-04

  Scale SEOQF with 1.000000e-01/1.000000e-01/1.000000e+00

 Standard Electronic Orientation quadrupole field applied
 Nucleus-field energy     =     0.0000000221 hartrees
 Guess from superposition of atomic densities
 Warning:  Energy on first SCF cycle will be non-variational
 An unrestricted Kohn-Sham SCF calculation will be
 performed using Pulay DIIS extrapolation
 Exchange:  Becke88      Correlation:  Perdew '86
 Using SG-1 standard quadrature grid
 SCF converges when DIIS error is below 1.0E-05
 Requested basis set is TZ(d,p)
 There are 148 shells and 288 basis functions
 A cutoff of  1.0D-08 yielded   7300 shell pairs
 There are     29820 function pairs (     32235 Cartesian)
 Inaccurate integrated density:
   Number of electrons =    81
   Numerical integral  =    32.978954319175
   Relative error      =   -59.2852415813 %
 ---------------------------------------
  Cycle       Energy         DIIS Error
 ---------------------------------------
    1      39.0959698048      4.01E-01
    2    -358.6541655358      8.39E-02
    3    -321.4384420483      7.36E-02
    4    -396.5520620952      5.72E-02
    5    -303.4680438764      7.51E-02
    6    -371.5017547863      6.21E-02
    7    -435.1984078005      3.28E-02
    8    -438.2279059788      3.66E-02
    9    -462.3665642298      7.10E-03
   10    -460.9055561990      1.31E-02
   11    -463.0067294466      2.90E-03
   12    -463.0576210421      2.45E-03
   13    -463.1336404757      8.71E-04
   14    -463.1412304870      4.11E-04
   15    -463.1429332088      1.70E-04
   16    -463.1432860999      8.07E-05
   17    -463.1433597759      3.96E-05
   18    -463.1433798047      1.74E-05
   19    -463.1433794982      7.93E-06 Convergence criterion met
 ---------------------------------------
 <S^2> = 0.7546
 SCF time:  CPU 343.15 s  wall 343.00 s
 SCF   energy in the final basis set = -463.1433794982
 Total energy in the final basis set = -463.1433794982
 Analysis of SCF Wavefunction
 
 --------------------------------------------------------------
                    Orbital Energies (a.u.)
 --------------------------------------------------------------
 
 Alpha MOs
 -- Occupied --
-10.116 -10.116 -10.092 -10.092 -10.087 -10.087 -10.087 -10.087
-10.078 -10.078 -10.078 -10.078  -0.975  -0.952  -0.889  -0.855
 -0.846  -0.837  -0.742  -0.736  -0.704  -0.696  -0.654  -0.617
 -0.595  -0.591  -0.564  -0.557  -0.553  -0.549  -0.536  -0.527
 -0.500  -0.492  -0.482  -0.474  -0.462  -0.441  -0.406  -0.401
 -0.391
 -- Virtual --
 -0.252  -0.220  -0.207  -0.190  -0.092  -0.091  -0.083  -0.073
 -0.051  -0.051  -0.039  -0.038  -0.036  -0.022  -0.016  -0.005
  0.011   0.013   0.015   0.025   0.030   0.034   0.051   0.051
  0.053   0.055   0.060   0.070   0.078   0.088   0.090   0.099
  0.103   0.114   0.116   0.119   0.123   0.135   0.141   0.155
  0.166   0.171   0.171   0.172   0.181   0.190   0.202   0.219
  0.223   0.232   0.250   0.270   0.299   0.321   0.321   0.321
  0.339   0.346   0.349   0.362   0.380   0.398   0.430   0.448
  0.450   0.463   0.500   0.502   0.525   0.547   0.547   0.550
  0.594   0.598   0.606   0.634   0.648   0.726   0.763   0.808
  0.813   0.862   0.870   0.898   0.910   0.918   0.919   0.939
  0.939   0.946   0.957   0.965   0.981   0.995   0.998   0.999
  1.001   1.012   1.016   1.020   1.025   1.028   1.032   1.040
  1.043   1.047   1.056   1.071   1.075   1.075   1.078   1.080
  1.085   1.091   1.102   1.104   1.114   1.120   1.123   1.123
  1.135   1.159   1.160   1.182   1.184   1.226   1.276   1.338
  1.402   1.423   1.462   1.467   1.540   1.547   1.557   1.595
  1.599   1.613   1.661   1.684   1.684   1.701   1.702   1.707
  1.728   1.733   1.748   1.748   1.784   1.805   1.806   1.810
  1.825   1.852   1.857   1.863   1.884   1.927   1.936   1.937
  1.942   1.964   1.966   1.981   1.982   1.983   1.987   1.996
  1.997   2.002   2.114   2.143   2.155   2.176   2.187   2.190
  2.194   2.216   2.234   2.255   2.274   2.275   2.318   2.321
  2.328   2.328   2.356   2.365   2.396   2.402   2.405   2.416
  2.546   2.548   2.626   2.664   2.664   2.677   2.703   2.726
  2.746   2.769   2.905   2.905   2.922   2.940   2.970   3.072
  3.073   3.077   3.108   3.113   3.125   3.127   3.138   3.203
  3.207   3.259   3.381   3.418   3.479   3.504   3.560   3.775
  3.912   6.308   6.323   6.406   6.412   6.456   6.463   6.501
  6.533   6.685   6.711  22.682  23.177  23.197  23.237  23.263
 23.288  23.314  23.333  23.407  23.540  23.581  23.603
 
 Beta MOs
 -- Occupied --
-10.114 -10.114 -10.089 -10.089 -10.086 -10.086 -10.086 -10.086
-10.078 -10.078 -10.078 -10.078  -0.971  -0.948  -0.883  -0.853
 -0.844  -0.830  -0.739  -0.733  -0.701  -0.693  -0.653  -0.616
 -0.593  -0.589  -0.562  -0.555  -0.550  -0.548  -0.534  -0.518
 -0.491  -0.490  -0.481  -0.473  -0.461  -0.427  -0.401  -0.397
 -- Virtual --
 -0.374  -0.238  -0.215  -0.201  -0.176  -0.090  -0.083  -0.082
 -0.072  -0.049  -0.043  -0.039  -0.035  -0.034  -0.020  -0.013
 -0.002   0.013   0.016   0.016   0.027   0.031   0.036   0.053
  0.053   0.055   0.056   0.063   0.072   0.078   0.090   0.095
  0.103   0.104   0.117   0.120   0.123   0.125   0.137   0.146
  0.159   0.168   0.174   0.176   0.178   0.184   0.195   0.205
  0.222   0.225   0.235   0.253   0.270   0.300   0.322   0.323
  0.323   0.342   0.347   0.351   0.364   0.382   0.401   0.433
  0.451   0.451   0.466   0.504   0.504   0.531   0.549   0.552
  0.552   0.596   0.600   0.609   0.640   0.652   0.726   0.765
  0.809   0.814   0.866   0.871   0.900   0.912   0.921   0.925
  0.940   0.944   0.952   0.964   0.967   0.990   0.996   1.004
  1.007   1.010   1.014   1.018   1.029   1.030   1.032   1.032
  1.044   1.050   1.056   1.058   1.075   1.075   1.080   1.080
  1.083   1.088   1.093   1.103   1.109   1.119   1.124   1.127
  1.129   1.139   1.161   1.164   1.183   1.185   1.231   1.277
  1.348   1.407   1.426   1.467   1.470   1.546   1.555   1.566
  1.597   1.604   1.615   1.665   1.686   1.689   1.706   1.710
  1.710   1.732   1.738   1.750   1.753   1.786   1.810   1.811
  1.819   1.831   1.853   1.863   1.864   1.890   1.936   1.938
  1.941   1.944   1.966   1.968   1.986   1.987   1.988   1.989
  1.998   2.000   2.002   2.118   2.144   2.160   2.181   2.192
  2.193   2.198   2.217   2.237   2.262   2.279   2.281   2.319
  2.329   2.331   2.331   2.359   2.369   2.398   2.404   2.411
  2.416   2.549   2.549   2.627   2.665   2.665   2.680   2.704
  2.728   2.748   2.771   2.905   2.905   2.922   2.940   2.971
  3.074   3.075   3.079   3.108   3.118   3.126   3.134   3.141
  3.205   3.214   3.266   3.384   3.421   3.486   3.507   3.563
  3.780   3.917   6.308   6.322   6.406   6.411   6.455   6.462
  6.501   6.533   6.685   6.711  22.684  23.181  23.201  23.238
 23.263  23.290  23.316  23.335  23.409  23.544  23.584  23.605
 --------------------------------------------------------------
 
          Ground-State Mulliken Net Atomic Charges

     Atom                 Charge (a.u.)    Spin (a.u.)
  --------------------------------------------------------
      1 C                    -0.168038       0.086463
      2 C                    -0.130666      -0.024497
      3 C                     0.164566       0.151383
      4 C                    -0.080030       0.246520
      5 C                    -0.131256      -0.021891
      6 C                    -0.167254       0.083366
      7 H                     0.190565      -0.004583
      8 H                     0.209425      -0.000219
      9 H                     0.213022      -0.011845
     10 H                     0.190481      -0.004878
     11 H                     0.209461       0.000131
     12 C                    -0.130957      -0.023515
     13 C                    -0.167695       0.084654
     14 C                    -0.080417       0.246625
     15 C                     0.164310       0.152757
     16 C                    -0.167176       0.082623
     17 C                    -0.131376      -0.021837
     18 H                     0.209417       0.000009
     19 H                     0.190528      -0.004674
     20 H                     0.209572      -0.000190
     21 H                     0.190460      -0.004427
     22 H                     0.213057      -0.011976
  --------------------------------------------------------
  Sum of atomic charges =     1.000000
  Sum of spin   charges =     1.000000

 -----------------------------------------------------------------
                    Cartesian Multipole Moments
 -----------------------------------------------------------------
    Charge (ESU x 10^10)
                 4.8032
    Dipole Moment (Debye)
         X       0.0077      Y       0.0011      Z       0.0002
       Tot       0.0078
    Quadrupole Moments (Debye-Ang)
        XX     -17.0744     XY       0.0041     YY     -50.4170
        XZ      -0.0008     YZ      -0.0004     ZZ     -71.7935
    Octapole Moments (Debye-Ang^2)
       XXX       0.0892    XXY      -0.0123    XYY      -0.0045
       YYY       0.0035    XXZ      -0.0085    XYZ       9.0813
       YYZ       0.0033    XZZ       0.0016    YZZ      -0.0014
       ZZZ       0.0002
    Hexadecapole Moments (Debye-Ang^3)
      XXXX   -1634.6600   XXXY      -0.0042   XXYY    -394.6807
      XYYY      -0.0108   YYYY    -459.4635   XXXZ      -0.0109
      XXYZ      -0.0040   XYYZ       0.0019   YYYZ      -0.0019
      XXZZ    -465.5675   XYZZ       0.0002   YYZZ    -113.2847
      XZZZ      -0.0016   YZZZ      -0.0015   ZZZZ     -96.2350
 -----------------------------------------------------------------
Archival summary:
1\1\compute-4-10.local\SP\ProcedureUnspecified\BasisUnspecified\1210(1+,2)\baa257\MonFeb2415:05:412014MonFeb2415:05:412014\0\\#,ProcedureUnspecified,BasisUnspecified,\\1,2\C\C,1,1.41284\H,2,1.09019,1,120.303\C,2,1.39727,1,121.718,3,-180,0\H,4,1.09238,2,119.445,1,180,0\C,4,1.39922,2,120.421,1,0,0\H,6,1.09172,4,120.535,2,-180,0\C,6,1.3992,4,118.943,2,0,0\H,8,1.0919,6,120.083,4,-180,0\C,8,1.39733,6,120.475,4,0,0\H,10,1.08988,8,117.912,6,180,0\C,1,1.49436,2,121.592,3,0,0\C,12,1.41282,1,121.594,2,160,0\H,13,1.09026,12,120.303,1,0,0\C,13,1.39727,12,121.718,1,-180,0\H,15,1.09199,13,119.443,12,180,0\C,15,1.39922,13,120.423,12,0,0\H,17,1.09172,15,120.536,13,180,0\C,17,1.39922,15,118.941,13,0,0\H,19,1.09191,17,120.083,15,-180,0\C,19,1.39735,17,120.476,15,0,0\H,21,1.09042,19,117.915,17,180,0\\\@

 Total job time:  343.41s(wall), 343.53s(cpu) 
 Mon Feb 24 15:05:41 2014

        *************************************************************
        *                                                           *
        *  Thank you very much for using Q-Chem.  Have a nice day.  *
        *                                                           *
        *************************************************************


0 sent ACK to 0 
now end server 0 ... 
cleanup process ... done
