
Running Job 1 of 1 biphenyl-SP-TZdp-Cation-90.0.in
qchem biphenyl-SP-TZdp-Cation-90.0.in_338.0 /state/partition1/191607.1.all.q/qchem338/ 1
/share/apps/qchem/4.1.0/bin/mpi/mpirun_qchem -machinefile /share/apps/qchem/4.1.0/bin/mpi/machines -np 1 /share/apps/qchem/4.1.0/exe/qcprog.exe biphenyl-SP-TZdp-Cation-90.0.in_338.0 /state/partition1/191607.1.all.q/qchem338/

Process 0 of 1 is on compute-1-16.local - thread support 0
initial socket setup ...start
initial socket setup ...done 
now start server 0 ... 
                  Welcome to Q-Chem
     A Quantum Leap Into The Future Of Chemistry

 Y. Shao, L. Fusti-Molnar, Y. Jung, J. Kussmann, C. Ochsenfeld, S. T. Brown, 
 A. T. B. Gilbert, L. V. Slipchenko, S. V. Levchenko, D. P. O'Neill, 
 R. A. DiStasio Jr., R. C. Lochan, T. Wang, G. J. O. Beran, N. A. Besley, 
 J. M. Herbert, C. Y. Lin, T. Van Voorhis, S. H. Chien, A. Sodt, R. P. Steele, 
 V. A. Rassolov, P. E. Maslen, P. P. Korambath, R. D. Adamson, B. Austin, 
 J. Baker, E. F. C. Byrd, H. Dachsel, R. J. Doerksen, A. Dreuw, B. D. Dunietz, 
 A. D. Dutoi, T. R. Furlani, S. R. Gwaltney, A. Heyden, S. Hirata, C.-P. Hsu, 
 G. Kedziora, R. Z. Khaliullin, P. Klunzinger, A. M. Lee, M. S. Lee, W. Liang, 
 I. Lotan, N. Nair, B. Peters, E. I. Proynov, P. A. Pieniazek, Y. M. Rhee, 
 J. Ritchie, E. Rosta, C. D. Sherrill, A. C. Simmonett, J. E. Subotnik, 
 H. L. Woodcock III, W. Zhang, A. T. Bell, A. K. Chakraborty, D. M. Chipman, 
 F. J. Keil, A. Warshel, W. J. Hehre, H. F. Schaefer III, J. Kong, 
 A. I. Krylov, P. M. W. Gill, M. Head-Gordon

 Additional authors for Version 3.1: 
 Z. Gan, Y. Zhao, N. E. SchultzD. Truhlar, E. Epifanovsky, M. Oana

 Additional authors for Version 3.2: 
 R. Baer, B. R. Brooks, D. Casanova, J.-D. Chai, C.-L. Cheng, C. Cramer, 
 D. Crittenden, A. Ghysels, G. Hawkins, E. G. Hohenstein, C. Kelley, 
 W. Kurlancheek, D. Liotard, E. Livshits, P. Manohar, A. Marenich, 
 D. Neuhauser, R. Olson, M. A. Rohrdanz, K. S. Thanthiriwatte, A. J. W. Thom, 
 V. Vanovschi, C. F. Williams, Q. Wu, Z.-Q. You

 Additional authors for Version 4.0: 
 A. Aspuru-Guzik, Y. Bernard, C. Chang, J. Deng, A. Dreuw, M. Diedenhofen, 
 R. G. Edgar, D. Ghosh, W. A. Goddard III, M. Goldey, L. D. Jacobson, 
 M. Gordon, B. Kaduk, I. Kaliman, K. Khistyaev, R. King, A. Klamt, 
 D. Kosenkov, T. Kus, D. Lambrecht, A. Landau, A. W. Lange, K. Lawler, F. Liu, 
 J. Liu, R. Olivares-Amaya, S. P. Mao, J. Parkhill, N. Russ, M. Schmidt, 
 N. Shenvi, D. Small, Y. C. Su, E. Sundstrom, L. Vogt, O. Vydrov, M. Watson, 
 M. Wormit, X. Xu, S. Yeganeh, I. Y. Zhang, D. Zuev

 Additional authors for Version 4.1: 
 X. Feng, M. W. D. Hanson-Heine, P. Horn, H. Ji, A. Laurent, R. Peverati, 
 N. Mardirossian, N. Sergueev, S. Sharada, P. Zimmerman


 Q-Chem, Version 4.1, Q-Chem, Inc., Pittsburgh, PA (2013).

 Intel X86 Linux Version 4.1.1

 Q-chem begins on Mon Feb 24 15:00:43 2014  

 Host: compute-1-16.local

 Scratch files written to /state/partition1/191607.1.all.q/qchem338//
 Nov513 13050_epif 4082   
 Parallel job on  1  processors

Processing $rem in /share/apps/qchem/4.1.0/config/preferences.
 MEM_TOTAL  2000 
Finally everything over in PARseQInput

--------------------------------------------------------------
User input:
--------------------------------------------------------------
$comment
DFT(BP86)/TZ(d,p) SP  biphenyl
Angle: 90.0
$end

$rem
JOBTYPE SP
EXCHANGE B
CORRELATION P86
BASIS TZ(d,p)
UNRESTRICTED TRUE
PRINT_ORBITALS FALSE
MAX_SCF_CYCLES 100
$end

$molecule
1 2
C	-1.481133	-1.211445	0.0
C	-2.878369	-1.221831	0.0
C	-0.747319	-0.004143	0.0
C	-3.595846	-0.020564	0.0
C	-2.891793	1.188615	0.0
C	-1.494461	1.195084	0.0
H	-0.988428	2.160976	0.0
H	-3.432896	2.137017	0.0
H	-4.687552	-0.02652	0.0
H	-0.962498	-2.170451	0.0
H	-3.408061	-2.176748	0.0
C	2.88516744898	0.0149901266683	-1.20398082774
C	1.48786194679	0.00763020295127	-1.20312689218
C	3.59552079698	0.0187317182138	0.00148030232028
C	0.747016	0.003728	0.0
C	1.48715477727	0.00762647812967	1.20345421564
C	2.88439788131	0.0149860731816	1.206511663
H	3.42129228009	0.0178140172589	-2.15519091309
H	0.977089853178	0.00493985095602	-2.16590389539
H	3.41930757429	0.0178035633651	2.15896038475
H	0.973586915916	0.00492140019419	2.1651006331
H	4.68722696492	0.0244819812056	0.00170204240436
$end
--------------------------------------------------------------
 ----------------------------------------------------
       Standard Nuclear Orientation (Angstroms)
    I     Atom         X            Y            Z
 ----------------------------------------------------
    1      C       1.487535    -1.202837     0.003628
    2      C       2.884807    -1.205646     0.003402
    3      C       0.747184     0.000462     0.000248
    4      C       3.595758    -0.000512    -0.000225
    5      C       2.885158     1.204827    -0.003616
    6      C       1.487812     1.203718    -0.003379
    7      H       0.976548     2.166848    -0.006098
    8      H       3.421110     2.156145    -0.006476
    9      H       4.687481    -0.000547    -0.000408
   10      H       0.974108    -2.164638     0.006514
   11      H       3.419670    -2.157673     0.006085
   12      C      -2.885151     0.003403     1.204833
   13      C      -1.487826     0.003618     1.203745
   14      C      -3.595716    -0.000217    -0.000504
   15      C      -0.747171     0.000230     0.000499
   16      C      -1.487522    -0.003389    -1.202826
   17      C      -2.884785    -0.003615    -1.205649
   18      H      -3.421124     0.006089     2.156129
   19      H      -0.976886     0.006501     2.166432
   20      H      -3.419861    -0.006472    -2.158004
   21      H      -0.974107    -0.006109    -2.164555
   22      H      -4.687437    -0.000388    -0.000543
 ----------------------------------------------------
 Molecular Point Group                 C1    NOp =  1
 Largest Abelian Subgroup              C1    NOp =  1
 Nuclear Repulsion Energy =   594.4007164578 hartrees
 There are       41 alpha and       40 beta electrons
 Requested basis set is TZ(d,p)
 There are 148 shells and 288 basis functions

Total QAlloc Memory Limit   2000 MB
Mega-Array Size        61 MB
MEM_STATIC part        62 MB
 A cutoff of  1.0D-08 yielded   7290 shell pairs
 There are     29914 function pairs (     32367 Cartesian)
 Smallest overlap matrix eigenvalue = 2.42E-04

  Scale SEOQF with 1.000000e-01/1.000000e-01/1.000000e-01

 Standard Electronic Orientation quadrupole field applied
 Nucleus-field energy     =     0.0000000163 hartrees
 Guess from superposition of atomic densities
 Warning:  Energy on first SCF cycle will be non-variational
 An unrestricted Kohn-Sham SCF calculation will be
 performed using Pulay DIIS extrapolation
 Exchange:  Becke88      Correlation:  Perdew '86
 Using SG-1 standard quadrature grid
 SCF converges when DIIS error is below 1.0E-05
 Requested basis set is TZ(d,p)
 There are 148 shells and 288 basis functions
 A cutoff of  1.0D-08 yielded   7290 shell pairs
 There are     29914 function pairs (     32367 Cartesian)
 Inaccurate integrated density:
   Number of electrons =    81
   Numerical integral  =    32.987085283182
   Relative error      =   -59.2752033541 %
 ---------------------------------------
  Cycle       Energy         DIIS Error
 ---------------------------------------
    1      38.6830306872      4.01E-01
    2    -359.0724922962      8.39E-02
    3    -321.3159080352      7.34E-02
    4    -384.2064973694      6.37E-02
    5    -299.2106940478      7.39E-02
    6    -334.2130666749      6.70E-02
    7    -444.2485811076      2.71E-02
    8    -428.8860821295      4.08E-02
    9    -462.6683255209      5.61E-03
   10    -462.3409762026      7.51E-03
   11    -463.0173754245      2.36E-03
   12    -463.0572848909      1.94E-03
   13    -463.0628952308      1.71E-03
   14    -463.0841305761      1.27E-03
   15    -463.0799694555      1.35E-03
   16    -463.0852296857      1.36E-03
   17    -463.1041312079      8.36E-04
   18    -463.0876235154      1.13E-03
   19    -463.1012958508      9.63E-04
   20    -463.1019965391      8.37E-04
   21    -463.0795723218      1.29E-03
   22    -463.0802690600      1.28E-03
   23    -463.0807609835      1.27E-03
   24    -463.0819081583      1.24E-03
   25    -463.0828329946      1.23E-03
   26    -463.0786977349      1.32E-03
   27    -463.0917239455      1.08E-03
   28    -463.0945917307      1.03E-03
   29    -463.0925501377      1.06E-03
   30    -463.0979634175      9.74E-04
   31    -463.0983964929      9.66E-04
   32    -463.1000158478      9.44E-04
   33    -463.1129993804      6.73E-04
   34    -463.0874125256      1.13E-03
   35    -463.0824940812      1.19E-03
   36    -462.8176108465      4.45E-03
   37    -463.0438929835      1.99E-03
   38    -463.0488254526      1.80E-03
   39    -463.0763177133      1.39E-03
   40    -463.0972951569      1.09E-03
   41    -463.0893006300      1.07E-03
   42    -463.0912716519      1.02E-03
   43    -463.0917574447      1.02E-03
   44    -463.0908112861      1.04E-03
   45    -463.0881649583      1.08E-03
   46    -463.0857761929      1.12E-03
   47    -463.0852059768      1.13E-03
   48    -463.0851899365      1.14E-03
   49    -463.0812853767      1.22E-03
   50    -463.0729511612      1.46E-03
   51    -463.0731795367      1.46E-03
   52    -463.0860599683      1.26E-03
   53    -463.0972427572      9.86E-04
   54    -463.1188667979      2.56E-04
   55    -463.1177188785      3.78E-04
   56    -463.1173875989      3.90E-04
   57    -463.1169446252      4.31E-04
   58    -463.1187994814      2.55E-04
   59    -463.1186992702      2.83E-04
   60    -463.1189572400      2.49E-04
   61    -463.1192062521      2.06E-04
   62    -463.1193211021      1.55E-04
   63    -463.1194270407      1.37E-04
   64    -463.1194697675      1.40E-04
   65    -463.1196127746      9.97E-05
   66    -463.1196305259      9.33E-05
   67    -463.1196444487      8.50E-05
   68    -463.1196705447      6.81E-05
   69    -463.1197025634      5.60E-05
   70    -463.1197129887      4.71E-05
   71    -463.1197141725      4.35E-05
   72    -463.1197224686      3.68E-05
   73    -463.1197277997      3.39E-05
   74    -463.1197307128      2.81E-05
   75    -463.1197362706      2.53E-05
   76    -463.1197527226      1.43E-05
   77    -463.1197574590      1.54E-05
   78    -463.1197660087      1.12E-05
   79    -463.1197636973      1.06E-05
   80    -463.1197655518      1.60E-05
   81    -463.1197647914      6.08E-06 Convergence criterion met
 ---------------------------------------
 <S^2> = 0.7539
 SCF time:  CPU 1251.59 s  wall 1251.13 s
 SCF   energy in the final basis set = -463.1197647914
 Total energy in the final basis set = -463.1197647914
 Analysis of SCF Wavefunction
 
 --------------------------------------------------------------
                    Orbital Energies (a.u.)
 --------------------------------------------------------------
 
 Alpha MOs
 -- Occupied --
-10.092 -10.092 -10.092 -10.090 -10.089 -10.088 -10.087 -10.086
-10.085 -10.083 -10.070 -10.070  -0.968  -0.949  -0.876  -0.855
 -0.855  -0.825  -0.737  -0.716  -0.715  -0.695  -0.647  -0.617
 -0.581  -0.581  -0.579  -0.562  -0.543  -0.543  -0.540  -0.505
 -0.505  -0.491  -0.469  -0.469  -0.465  -0.415  -0.410  -0.398
 -0.397
 -- Virtual --
 -0.227  -0.215  -0.214  -0.210  -0.088  -0.080  -0.078  -0.078
 -0.050  -0.050  -0.049  -0.048  -0.038  -0.030  -0.030  -0.028
  0.006   0.022   0.022   0.024   0.027   0.039   0.039   0.041
  0.055   0.055   0.065   0.075   0.082   0.082   0.087   0.094
  0.100   0.119   0.119   0.121   0.137   0.148   0.148   0.150
  0.166   0.166   0.167   0.170   0.170   0.174   0.180   0.197
  0.227   0.239   0.252   0.252   0.315   0.320   0.320   0.329
  0.332   0.332   0.343   0.343   0.361   0.412   0.430   0.445
  0.445   0.464   0.476   0.508   0.514   0.514   0.534   0.579
  0.579   0.587   0.587   0.606   0.654   0.742   0.759   0.861
  0.861   0.887   0.889   0.889   0.896   0.896   0.907   0.922
  0.932   0.945   0.967   0.967   0.979   0.990   1.009   1.012
  1.012   1.014   1.020   1.024   1.024   1.025   1.049   1.057
  1.057   1.060   1.065   1.070   1.071   1.071   1.074   1.081
  1.081   1.083   1.110   1.112   1.112   1.112   1.132   1.132
  1.140   1.175   1.198   1.198   1.211   1.228   1.228   1.366
  1.370   1.438   1.438   1.492   1.522   1.563   1.571   1.571
  1.603   1.603   1.630   1.678   1.702   1.707   1.710   1.728
  1.729   1.743   1.753   1.754   1.767   1.797   1.797   1.818
  1.821   1.844   1.845   1.900   1.906   1.914   1.914   1.957
  1.959   1.965   1.965   1.985   1.985   1.988   1.989   2.000
  2.009   2.009   2.119   2.119   2.119   2.184   2.190   2.195
  2.209   2.220   2.220   2.265   2.270   2.309   2.309   2.319
  2.332   2.346   2.347   2.351   2.398   2.414   2.417   2.417
  2.568   2.598   2.598   2.652   2.661   2.696   2.696   2.702
  2.763   2.830   2.912   2.933   2.933   2.940   2.988   2.989
  3.079   3.080   3.098   3.104   3.105   3.144   3.144   3.156
  3.216   3.277   3.386   3.386   3.471   3.511   3.559   3.814
  3.899   6.321   6.327   6.402   6.402   6.461   6.461   6.503
  6.504   6.678   6.727  22.784  23.195  23.213  23.214  23.216
 23.286  23.330  23.330  23.345  23.556  23.581  23.640
 
 Beta MOs
 -- Occupied --
-10.093 -10.092 -10.090 -10.088 -10.087 -10.086 -10.085 -10.084
-10.083 -10.082 -10.071 -10.070  -0.964  -0.945  -0.875  -0.849
 -0.849  -0.824  -0.735  -0.712  -0.712  -0.693  -0.645  -0.615
 -0.579  -0.579  -0.577  -0.561  -0.541  -0.541  -0.540  -0.496
 -0.496  -0.490  -0.468  -0.468  -0.463  -0.399  -0.394  -0.394
 -- Virtual --
 -0.394  -0.213  -0.210  -0.210  -0.196  -0.087  -0.079  -0.070
 -0.070  -0.048  -0.048  -0.048  -0.047  -0.037  -0.028  -0.028
 -0.027   0.008   0.025   0.025   0.025   0.029   0.042   0.042
  0.047   0.057   0.057   0.066   0.082   0.083   0.084   0.089
  0.097   0.102   0.122   0.122   0.126   0.139   0.151   0.153
  0.153   0.168   0.168   0.168   0.173   0.173   0.176   0.182
  0.202   0.230   0.242   0.255   0.255   0.316   0.321   0.321
  0.330   0.333   0.333   0.345   0.345   0.362   0.412   0.433
  0.446   0.446   0.467   0.479   0.511   0.519   0.519   0.535
  0.580   0.581   0.593   0.593   0.610   0.657   0.743   0.760
  0.862   0.862   0.889   0.891   0.891   0.898   0.898   0.908
  0.928   0.934   0.953   0.974   0.974   0.980   1.003   1.015
  1.015   1.015   1.023   1.026   1.030   1.030   1.031   1.059
  1.059   1.059   1.060   1.065   1.074   1.074   1.078   1.081
  1.083   1.083   1.084   1.113   1.116   1.119   1.119   1.137
  1.137   1.146   1.175   1.202   1.202   1.213   1.228   1.228
  1.375   1.378   1.442   1.442   1.494   1.524   1.565   1.574
  1.574   1.610   1.610   1.632   1.684   1.706   1.708   1.716
  1.732   1.732   1.745   1.756   1.756   1.769   1.801   1.801
  1.821   1.825   1.852   1.852   1.904   1.907   1.920   1.920
  1.959   1.959   1.969   1.969   1.992   1.992   1.992   1.993
  2.004   2.011   2.011   2.120   2.121   2.121   2.190   2.196
  2.200   2.213   2.223   2.223   2.271   2.274   2.314   2.314
  2.321   2.340   2.350   2.350   2.353   2.399   2.414   2.420
  2.420   2.569   2.599   2.599   2.654   2.663   2.697   2.697
  2.704   2.764   2.834   2.912   2.934   2.934   2.941   2.990
  2.990   3.080   3.083   3.101   3.110   3.110   3.149   3.149
  3.158   3.219   3.279   3.393   3.393   3.472   3.514   3.561
  3.819   3.903   6.320   6.327   6.401   6.401   6.461   6.461
  6.503   6.503   6.677   6.727  22.787  23.195  23.217  23.217
 23.218  23.288  23.333  23.333  23.347  23.558  23.583  23.642
 --------------------------------------------------------------
 
          Ground-State Mulliken Net Atomic Charges

     Atom                 Charge (a.u.)    Spin (a.u.)
  --------------------------------------------------------
      1 C                    -0.130433       0.167626
      2 C                    -0.095702       0.147135
      3 C                     0.029044      -0.049090
      4 C                    -0.125472      -0.051245
      5 C                    -0.088918       0.173417
      6 C                    -0.136650       0.141934
      7 H                     0.208286      -0.007112
      8 H                     0.211471      -0.008528
      9 H                     0.209242       0.001313
     10 H                     0.208476      -0.008168
     11 H                     0.211310      -0.007459
     12 C                    -0.087738       0.192946
     13 C                    -0.137813       0.118178
     14 C                    -0.125555      -0.046601
     15 C                     0.028674      -0.044135
     16 C                    -0.129575       0.186312
     17 C                    -0.097462       0.123392
     18 H                     0.211690      -0.009586
     19 H                     0.207929      -0.005943
     20 H                     0.211116      -0.006273
     21 H                     0.208756      -0.009154
     22 H                     0.209326       0.001043
  --------------------------------------------------------
  Sum of atomic charges =     1.000000
  Sum of spin   charges =     1.000000

 -----------------------------------------------------------------
                    Cartesian Multipole Moments
 -----------------------------------------------------------------
    Charge (ESU x 10^10)
                 4.8032
    Dipole Moment (Debye)
         X       0.0091      Y       0.0032      Z       0.0083
       Tot       0.0127
    Quadrupole Moments (Debye-Ang)
        XX     -20.8795     XY       0.0996     YY     -59.6059
        XZ      -0.1903     YZ      -0.0006     ZZ     -59.6248
    Octapole Moments (Debye-Ang^2)
       XXX      -0.0411    XXY       0.4109    XYY      29.6362
       YYY       0.0192    XXZ       0.8081    XYZ      -0.1720
       YYZ       0.0245    XZZ     -29.5947    YZZ       0.0079
       ZZZ       0.0313
    Hexadecapole Moments (Debye-Ang^3)
      XXXX   -1750.2205   XXXY       1.5783   XXYY    -424.3316
      XYYY       0.2245   YYYY    -267.0912   XXXZ      -3.1038
      XXYZ      -0.0070   XYYZ      -0.2467   YYYZ      -0.2336
      XXZZ    -424.4446   XYZZ       0.1097   YYZZ    -115.3188
      XZZZ      -0.5048   YZZZ       0.2259   ZZZZ    -267.1505
 -----------------------------------------------------------------
Archival summary:
1\1\compute-1-16.local\SP\ProcedureUnspecified\BasisUnspecified\1210(1+,2)\baa257\MonFeb2415:21:352014MonFeb2415:21:352014\0\\#,ProcedureUnspecified,BasisUnspecified,\\1,2\C\C,1,1.41284\H,2,1.09019,1,120.303\C,2,1.39727,1,121.718,3,180,0\H,4,1.09238,2,119.445,1,180,0\C,4,1.39922,2,120.421,1,0,0\H,6,1.09172,4,120.535,2,180,0\C,6,1.3992,4,118.943,2,0,0\H,8,1.0919,6,120.083,4,-180,0\C,8,1.39733,6,120.475,4,0,0\H,10,1.08988,8,117.912,6,-180,0\C,1,1.49436,2,121.592,3,0,0\C,12,1.41282,1,121.594,2,90,0\H,13,1.09026,12,120.303,1,0,0\C,13,1.39727,12,121.718,1,-180,0\H,15,1.09199,13,119.443,12,180,0\C,15,1.39922,13,120.423,12,0,0\H,17,1.09172,15,120.536,13,-180,0\C,17,1.39922,15,118.941,13,0,0\H,19,1.09191,17,120.083,15,180,0\C,19,1.39735,17,120.476,15,0,0\H,21,1.09042,19,117.915,17,180,0\\\@

 Total job time:  1251.52s(wall), 1251.97s(cpu) 
 Mon Feb 24 15:21:35 2014

        *************************************************************
        *                                                           *
        *  Thank you very much for using Q-Chem.  Have a nice day.  *
        *                                                           *
        *************************************************************


0 sent ACK to 0 
now end server 0 ... 
cleanup process ... done
