
Running Job 1 of 1 biphenyl-SP-TZdp-Cation-45.0.in
qchem biphenyl-SP-TZdp-Cation-45.0.in_11848.0 /state/partition1/191598.1.all.q/qchem11848/ 1
/share/apps/qchem/4.1.0/bin/mpi/mpirun_qchem -machinefile /share/apps/qchem/4.1.0/bin/mpi/machines -np 1 /share/apps/qchem/4.1.0/exe/qcprog.exe biphenyl-SP-TZdp-Cation-45.0.in_11848.0 /state/partition1/191598.1.all.q/qchem11848/

Process 0 of 1 is on compute-2-20.local - thread support 0
initial socket setup ...start
initial socket setup ...done 
now start server 0 ... 
                  Welcome to Q-Chem
     A Quantum Leap Into The Future Of Chemistry

 Y. Shao, L. Fusti-Molnar, Y. Jung, J. Kussmann, C. Ochsenfeld, S. T. Brown, 
 A. T. B. Gilbert, L. V. Slipchenko, S. V. Levchenko, D. P. O'Neill, 
 R. A. DiStasio Jr., R. C. Lochan, T. Wang, G. J. O. Beran, N. A. Besley, 
 J. M. Herbert, C. Y. Lin, T. Van Voorhis, S. H. Chien, A. Sodt, R. P. Steele, 
 V. A. Rassolov, P. E. Maslen, P. P. Korambath, R. D. Adamson, B. Austin, 
 J. Baker, E. F. C. Byrd, H. Dachsel, R. J. Doerksen, A. Dreuw, B. D. Dunietz, 
 A. D. Dutoi, T. R. Furlani, S. R. Gwaltney, A. Heyden, S. Hirata, C.-P. Hsu, 
 G. Kedziora, R. Z. Khaliullin, P. Klunzinger, A. M. Lee, M. S. Lee, W. Liang, 
 I. Lotan, N. Nair, B. Peters, E. I. Proynov, P. A. Pieniazek, Y. M. Rhee, 
 J. Ritchie, E. Rosta, C. D. Sherrill, A. C. Simmonett, J. E. Subotnik, 
 H. L. Woodcock III, W. Zhang, A. T. Bell, A. K. Chakraborty, D. M. Chipman, 
 F. J. Keil, A. Warshel, W. J. Hehre, H. F. Schaefer III, J. Kong, 
 A. I. Krylov, P. M. W. Gill, M. Head-Gordon

 Additional authors for Version 3.1: 
 Z. Gan, Y. Zhao, N. E. SchultzD. Truhlar, E. Epifanovsky, M. Oana

 Additional authors for Version 3.2: 
 R. Baer, B. R. Brooks, D. Casanova, J.-D. Chai, C.-L. Cheng, C. Cramer, 
 D. Crittenden, A. Ghysels, G. Hawkins, E. G. Hohenstein, C. Kelley, 
 W. Kurlancheek, D. Liotard, E. Livshits, P. Manohar, A. Marenich, 
 D. Neuhauser, R. Olson, M. A. Rohrdanz, K. S. Thanthiriwatte, A. J. W. Thom, 
 V. Vanovschi, C. F. Williams, Q. Wu, Z.-Q. You

 Additional authors for Version 4.0: 
 A. Aspuru-Guzik, Y. Bernard, C. Chang, J. Deng, A. Dreuw, M. Diedenhofen, 
 R. G. Edgar, D. Ghosh, W. A. Goddard III, M. Goldey, L. D. Jacobson, 
 M. Gordon, B. Kaduk, I. Kaliman, K. Khistyaev, R. King, A. Klamt, 
 D. Kosenkov, T. Kus, D. Lambrecht, A. Landau, A. W. Lange, K. Lawler, F. Liu, 
 J. Liu, R. Olivares-Amaya, S. P. Mao, J. Parkhill, N. Russ, M. Schmidt, 
 N. Shenvi, D. Small, Y. C. Su, E. Sundstrom, L. Vogt, O. Vydrov, M. Watson, 
 M. Wormit, X. Xu, S. Yeganeh, I. Y. Zhang, D. Zuev

 Additional authors for Version 4.1: 
 X. Feng, M. W. D. Hanson-Heine, P. Horn, H. Ji, A. Laurent, R. Peverati, 
 N. Mardirossian, N. Sergueev, S. Sharada, P. Zimmerman


 Q-Chem, Version 4.1, Q-Chem, Inc., Pittsburgh, PA (2013).

 Intel X86 Linux Version 4.1.1

 Q-chem begins on Mon Feb 24 15:00:15 2014  

 Host: compute-2-20.local

 Scratch files written to /state/partition1/191598.1.all.q/qchem11848//
 Nov513 13050_epif 4082   
 Parallel job on  1  processors

Processing $rem in /share/apps/qchem/4.1.0/config/preferences.
 MEM_TOTAL  2000 
Finally everything over in PARseQInput

--------------------------------------------------------------
User input:
--------------------------------------------------------------
$comment
DFT(BP86)/TZ(d,p) SP  biphenyl
Angle: 45.0
$end

$rem
JOBTYPE SP
EXCHANGE B
CORRELATION P86
BASIS TZ(d,p)
UNRESTRICTED TRUE
PRINT_ORBITALS FALSE
MAX_SCF_CYCLES 100
$end

$molecule
1 2
C	-1.481133	-1.211445	0.0
C	-2.878369	-1.221831	0.0
C	-0.747319	-0.004143	0.0
C	-3.595846	-0.020564	0.0
C	-2.891793	1.188615	0.0
C	-1.494461	1.195084	0.0
H	-0.988428	2.160976	0.0
H	-3.432896	2.137017	0.0
H	-4.687552	-0.02652	0.0
H	-0.962498	-2.170451	0.0
H	-3.408061	-2.176748	0.0
C	2.88965160271	-0.836341071604	-0.851343007716
C	1.49234292009	-0.84309718007	-0.850739184089
C	3.59551528368	0.0197784355029	0.00104673180888
C	0.747016	0.003728	0.0
C	1.48267258488	0.858585310579	0.850970636727
C	2.87990430164	0.868106817402	0.853132578488
H	3.42931915822	-1.50611495259	-1.5239501094
H	0.985156631157	-1.52656423625	-1.53152533183
H	3.411266657	1.54439791522	1.52661552837
H	0.96552312964	1.53585750306	1.53095733961
H	4.68722062576	0.0256854902368	0.00120352572599
$end
--------------------------------------------------------------
 ----------------------------------------------------
       Standard Nuclear Orientation (Angstroms)
    I     Atom         X            Y            Z
 ----------------------------------------------------
    1      C       1.487707    -1.111359    -0.460257
    2      C       2.884980    -1.113700    -0.461421
    3      C       0.747184     0.000216     0.000272
    4      C       3.595759    -0.000165    -0.000281
    5      C       2.884986     1.113298     0.461027
    6      C       1.487639     1.112020     0.460691
    7      H       0.976237     2.001747     0.829297
    8      H       3.420801     1.992304     0.825046
    9      H       4.687481     0.000000    -0.000364
   10      H       0.974419    -2.000044    -0.828289
   11      H       3.419979    -1.993165    -0.825779
   12      C      -2.884988    -1.113299     0.461033
   13      C      -1.487664    -1.112055     0.460700
   14      C      -3.595716     0.000170    -0.000277
   15      C      -0.747171    -0.000270     0.000278
   16      C      -1.487684     1.111334    -0.460263
   17      C      -2.884948     1.113704    -0.461428
   18      H      -3.420833    -1.992276     0.825049
   19      H      -0.976593    -2.001378     0.829139
   20      H      -3.420153     1.993477    -0.825914
   21      H      -0.974400     1.999946    -0.828273
   22      H      -4.687437     0.000019    -0.000357
 ----------------------------------------------------
 Molecular Point Group                 C1    NOp =  1
 Largest Abelian Subgroup              C1    NOp =  1
 Nuclear Repulsion Energy =   595.2342932414 hartrees
 There are       41 alpha and       40 beta electrons
 Requested basis set is TZ(d,p)
 There are 148 shells and 288 basis functions

Total QAlloc Memory Limit   2000 MB
Mega-Array Size        61 MB
MEM_STATIC part        62 MB
 A cutoff of  1.0D-08 yielded   7310 shell pairs
 There are     29886 function pairs (     32313 Cartesian)
 Smallest overlap matrix eigenvalue = 2.02E-04

  Scale SEOQF with 1.000000e-01/1.000000e-01/1.000000e+00

 Standard Electronic Orientation quadrupole field applied
 Nucleus-field energy     =     0.0000000079 hartrees
 Guess from superposition of atomic densities
 Warning:  Energy on first SCF cycle will be non-variational
 An unrestricted Kohn-Sham SCF calculation will be
 performed using Pulay DIIS extrapolation
 Exchange:  Becke88      Correlation:  Perdew '86
 Using SG-1 standard quadrature grid
 SCF converges when DIIS error is below 1.0E-05
 Requested basis set is TZ(d,p)
 There are 148 shells and 288 basis functions
 A cutoff of  1.0D-08 yielded   7310 shell pairs
 There are     29886 function pairs (     32313 Cartesian)
 Inaccurate integrated density:
   Number of electrons =    81
   Numerical integral  =    32.983535145873
   Relative error      =   -59.2795862397 %
 ---------------------------------------
  Cycle       Energy         DIIS Error
 ---------------------------------------
    1      38.9126922872      4.01E-01
    2    -358.9570223931      8.36E-02
    3    -320.8320790744      7.35E-02
    4    -383.3682397794      6.30E-02
    5    -297.3841112008      7.50E-02
    6    -345.2525638382      7.24E-02
    7    -456.9054183896      1.73E-02
    8    -447.6195059706      2.66E-02
    9    -462.8761671564      4.66E-03
   10    -462.2779142450      7.89E-03
   11    -463.1005831392      1.60E-03
   12    -463.0743688090      1.88E-03
   13    -463.1315798740      7.30E-04
   14    -463.1355540113      4.60E-04
   15    -463.1386799061      1.77E-04
   16    -463.1389421655      8.15E-05
   17    -463.1390121141      4.59E-05
   18    -463.1390420777      2.08E-05
   19    -463.1390521227      1.08E-05
   20    -463.1390570619      3.48E-06 Convergence criterion met
 ---------------------------------------
 <S^2> = 0.7540
 SCF time:  CPU 352.88 s  wall 352.88 s
 SCF   energy in the final basis set = -463.1390570619
 Total energy in the final basis set = -463.1390570619
 Analysis of SCF Wavefunction
 
 --------------------------------------------------------------
                    Orbital Energies (a.u.)
 --------------------------------------------------------------
 
 Alpha MOs
 -- Occupied --
-10.115 -10.115 -10.092 -10.092 -10.086 -10.086 -10.086 -10.086
-10.077 -10.077 -10.077 -10.077  -0.974  -0.951  -0.888  -0.853
 -0.846  -0.837  -0.741  -0.730  -0.708  -0.696  -0.650  -0.619
 -0.593  -0.586  -0.572  -0.559  -0.550  -0.543  -0.538  -0.518
 -0.501  -0.494  -0.477  -0.471  -0.467  -0.432  -0.403  -0.402
 -0.396
 -- Virtual --
 -0.244  -0.214  -0.213  -0.200  -0.086  -0.086  -0.080  -0.074
 -0.057  -0.050  -0.040  -0.040  -0.035  -0.034  -0.026  -0.022
  0.006   0.014   0.017   0.020   0.028   0.038   0.046   0.051
  0.056   0.058   0.063   0.072   0.079   0.090   0.090   0.097
  0.103   0.110   0.119   0.121   0.124   0.142   0.146   0.147
  0.159   0.159   0.164   0.171   0.190   0.193   0.193   0.212
  0.228   0.230   0.239   0.261   0.294   0.305   0.321   0.326
  0.330   0.335   0.348   0.349   0.355   0.407   0.427   0.438
  0.441   0.452   0.487   0.507   0.512   0.522   0.545   0.559
  0.593   0.600   0.602   0.617   0.634   0.748   0.758   0.839
  0.854   0.861   0.879   0.882   0.900   0.902   0.919   0.925
  0.946   0.956   0.960   0.972   0.983   0.986   0.987   0.993
  1.004   1.005   1.009   1.014   1.018   1.031   1.034   1.039
  1.041   1.051   1.052   1.068   1.070   1.071   1.077   1.083
  1.085   1.088   1.106   1.110   1.110   1.125   1.129   1.129
  1.133   1.154   1.178   1.191   1.194   1.202   1.297   1.352
  1.380   1.434   1.450   1.470   1.525   1.549   1.551   1.580
  1.608   1.616   1.641   1.688   1.689   1.693   1.708   1.712
  1.730   1.744   1.750   1.757   1.772   1.789   1.802   1.810
  1.834   1.841   1.842   1.860   1.915   1.919   1.925   1.951
  1.961   1.964   1.966   1.966   1.985   1.986   1.995   1.995
  1.998   2.002   2.115   2.143   2.151   2.167   2.188   2.191
  2.193   2.197   2.208   2.245   2.260   2.287   2.303   2.316
  2.326   2.326   2.340   2.362   2.393   2.408   2.414   2.429
  2.545   2.552   2.642   2.651   2.652   2.688   2.698   2.740
  2.748   2.751   2.904   2.921   2.922   2.935   2.967   3.034
  3.071   3.074   3.103   3.104   3.109   3.126   3.155   3.179
  3.209   3.261   3.382   3.416   3.469   3.527   3.536   3.784
  3.904   6.306   6.323   6.399   6.409   6.454   6.462   6.487
  6.535   6.690   6.710  22.723  23.179  23.196  23.227  23.230
 23.278  23.330  23.334  23.385  23.542  23.580  23.601
 
 Beta MOs
 -- Occupied --
-10.113 -10.113 -10.089 -10.089 -10.085 -10.085 -10.085 -10.085
-10.077 -10.077 -10.077 -10.077  -0.969  -0.947  -0.882  -0.851
 -0.845  -0.830  -0.738  -0.728  -0.705  -0.693  -0.649  -0.617
 -0.590  -0.584  -0.569  -0.557  -0.548  -0.542  -0.537  -0.509
 -0.492  -0.492  -0.475  -0.470  -0.465  -0.419  -0.399  -0.399
 -- Virtual --
 -0.380  -0.231  -0.209  -0.208  -0.186  -0.085  -0.079  -0.077
 -0.069  -0.052  -0.048  -0.039  -0.038  -0.033  -0.031  -0.024
 -0.020   0.008   0.017   0.019   0.024   0.031   0.039   0.047
  0.053   0.059   0.060   0.064   0.074   0.081   0.092   0.094
  0.099   0.105   0.112   0.122   0.126   0.127   0.147   0.148
  0.153   0.162   0.164   0.166   0.177   0.194   0.196   0.197
  0.216   0.231   0.235   0.242   0.264   0.295   0.306   0.323
  0.328   0.330   0.336   0.349   0.352   0.356   0.410   0.431
  0.440   0.443   0.455   0.489   0.511   0.514   0.529   0.547
  0.564   0.598   0.601   0.603   0.621   0.637   0.750   0.759
  0.842   0.856   0.864   0.881   0.883   0.902   0.904   0.924
  0.929   0.949   0.960   0.965   0.979   0.987   0.989   0.990
  0.996   1.011   1.011   1.013   1.016   1.028   1.035   1.042
  1.048   1.050   1.052   1.056   1.072   1.073   1.074   1.082
  1.085   1.087   1.090   1.108   1.112   1.115   1.128   1.133
  1.134   1.139   1.156   1.182   1.194   1.195   1.208   1.301
  1.362   1.385   1.437   1.453   1.475   1.532   1.557   1.557
  1.586   1.611   1.617   1.646   1.692   1.693   1.695   1.711
  1.719   1.735   1.747   1.754   1.762   1.775   1.796   1.806
  1.819   1.839   1.843   1.846   1.861   1.921   1.923   1.927
  1.953   1.967   1.968   1.970   1.975   1.990   1.990   1.996
  1.997   1.999   2.002   2.119   2.150   2.154   2.173   2.191
  2.193   2.194   2.200   2.214   2.248   2.266   2.294   2.310
  2.319   2.329   2.331   2.342   2.367   2.395   2.414   2.415
  2.431   2.547   2.554   2.643   2.652   2.653   2.691   2.700
  2.742   2.750   2.754   2.905   2.921   2.923   2.935   2.968
  3.036   3.074   3.076   3.105   3.108   3.110   3.133   3.157
  3.181   3.215   3.268   3.384   3.418   3.476   3.530   3.539
  3.789   3.909   6.306   6.323   6.399   6.409   6.454   6.462
  6.487   6.535   6.690   6.710  22.725  23.183  23.200  23.227
 23.231  23.281  23.333  23.336  23.387  23.546  23.582  23.604
 --------------------------------------------------------------
 
          Ground-State Mulliken Net Atomic Charges

     Atom                 Charge (a.u.)    Spin (a.u.)
  --------------------------------------------------------
      1 C                    -0.164842       0.072617
      2 C                    -0.123136      -0.012839
      3 C                     0.108700       0.160447
      4 C                    -0.077905       0.240380
      5 C                    -0.123251      -0.012592
      6 C                    -0.164854       0.072184
      7 H                     0.206186      -0.004087
      8 H                     0.209995      -0.000214
      9 H                     0.212799      -0.011624
     10 H                     0.206084      -0.004106
     11 H                     0.210058      -0.000201
     12 C                    -0.122970      -0.012779
     13 C                    -0.164843       0.072367
     14 C                    -0.077705       0.240613
     15 C                     0.108579       0.159988
     16 C                    -0.164862       0.073461
     17 C                    -0.123027      -0.013390
     18 H                     0.209973      -0.000153
     19 H                     0.206066      -0.004085
     20 H                     0.210119      -0.000126
     21 H                     0.206047      -0.004204
     22 H                     0.212787      -0.011658
  --------------------------------------------------------
  Sum of atomic charges =     1.000000
  Sum of spin   charges =     1.000000

 -----------------------------------------------------------------
                    Cartesian Multipole Moments
 -----------------------------------------------------------------
    Charge (ESU x 10^10)
                 4.8032
    Dipole Moment (Debye)
         X      -0.0034      Y       0.0000      Z      -0.0001
       Tot       0.0034
    Quadrupole Moments (Debye-Ang)
        XX     -17.2222     XY       0.0021     YY     -52.9304
        XZ      -0.0001     YZ       0.0007     ZZ     -69.0812
    Octapole Moments (Debye-Ang^2)
       XXX      -0.0308    XXY      -0.0009    XYY      -0.0022
       YYY       0.0006    XXZ      -0.0174    XYZ      18.8390
       YYZ       0.0059    XZZ      -0.0009    YZZ      -0.0007
       ZZZ       0.0010
    Hexadecapole Moments (Debye-Ang^3)
      XXXX   -1637.4950   XXXY       0.0071   XXYY    -403.0124
      XYYY      -0.0051   YYYY    -429.0725   XXXZ      -0.0015
      XXYZ      -0.0055   XYYZ       0.0038   YYYZ       0.0036
      XXZZ    -456.9615   XYZZ      -0.0049   YYZZ     -97.4360
      XZZZ      -0.0043   YZZZ       0.0000   ZZZZ    -156.6860
 -----------------------------------------------------------------
Archival summary:
1\1\compute-2-20.local\SP\ProcedureUnspecified\BasisUnspecified\1210(1+,2)\baa257\MonFeb2415:06:082014MonFeb2415:06:082014\0\\#,ProcedureUnspecified,BasisUnspecified,\\1,2\C\C,1,1.41284\H,2,1.09019,1,120.303\C,2,1.39727,1,121.718,3,-180,0\H,4,1.09238,2,119.445,1,-180,0\C,4,1.39922,2,120.421,1,0,0\H,6,1.09172,4,120.535,2,-180,0\C,6,1.3992,4,118.943,2,0,0\H,8,1.0919,6,120.083,4,-180,0\C,8,1.39733,6,120.475,4,0,0\H,10,1.08988,8,117.912,6,180,0\C,1,1.49436,2,121.592,3,0,0\C,12,1.41282,1,121.594,2,135,0\H,13,1.09026,12,120.303,1,0,0\C,13,1.39727,12,121.718,1,180,0\H,15,1.09199,13,119.443,12,180,0\C,15,1.39922,13,120.423,12,0,0\H,17,1.09172,15,120.536,13,-180,0\C,17,1.39922,15,118.941,13,0,0\H,19,1.09191,17,120.083,15,180,0\C,19,1.39735,17,120.476,15,0,0\H,21,1.09042,19,117.915,17,-180,0\\\@

 Total job time:  353.28s(wall), 353.26s(cpu) 
 Mon Feb 24 15:06:08 2014

        *************************************************************
        *                                                           *
        *  Thank you very much for using Q-Chem.  Have a nice day.  *
        *                                                           *
        *************************************************************


0 sent ACK to 0 
now end server 0 ... 
cleanup process ... done
